4
# time step = 0.0 fs
Atom -0.005781 0.006567 0.000644
Atom -0.002874 -0.002098 -0.003738
Atom -0.005536 -0.007708 0.027084
Atom 0.006145 -0.009275 -0.027293
4
# time step = 0.5 fs
Atom -0.005781 0.006567 0.000644
Atom -0.002874 -0.002098 -0.003738
Atom -0.005536 -0.007708 0.027084
Atom 0.006145 -0.009275 -0.027293
4
# time step = 1.0 fs
Atom -0.004890 0.006492 0.000561
Atom -0.003619 -0.002074 -0.003797
Atom -0.004023 -0.007649 0.027062
Atom 0.004048 -0.009265 -0.027244
4
# time step = 1.5 fs
Atom -0.003932 0.006350 0.000484
Atom -0.004304 -0.002028 -0.003835
Atom -0.002461 -0.007534 0.027021
Atom 0.001409 -0.009253 -0.027183
4
# time step = 2.0 fs
Atom -0.002943 0.006143 0.000415
Atom -0.004907 -0.001962 -0.003850
Atom -0.000897 -0.007365 0.026935
Atom -0.001580 -0.009234 -0.027090
4
# time step = 2.5 fs
Atom -0.001957 0.005874 0.000357
Atom -0.005412 -0.001876 -0.003846
Atom 0.000629 -0.007143 0.026793
Atom -0.004717 -0.009210 -0.026957
4
# time step = 3.0 fs
Atom -0.001003 0.005547 0.000310
Atom -0.005810 -0.001771 -0.003823
Atom 0.002055 -0.006872 0.026567
Atom -0.007805 -0.009182 -0.026764
4
# time step = 3.5 fs
Atom -0.000107 0.005166 0.000280
Atom -0.006087 -0.001650 -0.003781
Atom 0.003306 -0.006551 0.026235
Atom -0.010661 -0.009157 -0.026511
4
# time step = 4.0 fs
Atom 0.000703 0.004738 0.000266
Atom -0.006236 -0.001513 -0.003721
Atom 0.004345 -0.006183 0.025770
Atom -0.013098 -0.009139 -0.026189
4
# time step = 4.5 fs
Atom 0.001397 0.004266 0.000271
Atom -0.006254 -0.001362 -0.003645
Atom 0.005207 -0.005774 0.025158
Atom -0.014890 -0.009134 -0.025796
4
# time step = 5.0 fs
Atom 0.001944 0.003756 0.000296
Atom -0.006143 -0.001201 -0.003556
Atom 0.005966 -0.005333 0.024397
Atom -0.015807 -0.009152 -0.025331
4
# time step = 5.5 fs
Atom 0.002328 0.003216 0.000340
Atom -0.005899 -0.001032 -0.003454
Atom 0.006591 -0.004866 0.023480
Atom -0.015789 -0.009198 -0.024795
4
# time step = 6.0 fs
Atom 0.002557 0.002651 0.000407
Atom -0.005512 -0.000855 -0.003337
Atom 0.006912 -0.004361 0.022393
Atom -0.015014 -0.009279 -0.024212
4
# time step = 6.5 fs
Atom 0.002636 0.002067 0.000498
Atom -0.004969 -0.000670 -0.003203
Atom 0.006777 -0.003811 0.021118
Atom -0.013669 -0.009388 -0.023598
4
# time step = 7.0 fs
Atom 0.002557 0.001471 0.000610
Atom -0.004283 -0.000481 -0.003057
Atom 0.006371 -0.003230 0.019689
Atom -0.011696 -0.009524 -0.022953
4
# time step = 7.5 fs
Atom 0.002299 0.000864 0.000732
Atom -0.003485 -0.000298 -0.002910
Atom 0.006146 -0.002661 0.018170
Atom -0.008855 -0.009674 -0.022221
4
# time step = 8.0 fs
Atom 0.001860 0.000251 0.000855
Atom -0.002576 -0.000127 -0.002770
Atom 0.006127 -0.002128 0.016628
Atom -0.005184 -0.009830 -0.021384
4
# time step = 8.5 fs
Atom 0.001333 -0.000359 0.000989
Atom -0.001553 0.000040 -0.002623
Atom 0.005806 -0.001583 0.014989
Atom -0.001667 -0.009965 -0.020460
4
# time step = 9.0 fs
Atom 0.000814 -0.000959 0.001150
Atom -0.000388 0.000216 -0.002446
Atom 0.004374 -0.000961 0.013168
Atom 0.000751 -0.010076 -0.019540
4
# time step = 9.5 fs
Atom 0.000288 -0.001541 0.001324
Atom 0.000915 0.000396 -0.002242
Atom 0.001914 -0.000304 0.011246
Atom 0.002393 -0.010166 -0.018632
4
# time step = 10.0 fs
Atom -0.000252 -0.002117 0.001479
Atom 0.002168 0.000548 -0.002066
Atom 0.000421 0.000298 0.009355
Atom 0.004100 -0.010149 -0.017425
4
# time step = 10.5 fs
Atom -0.000956 -0.002674 0.001572
Atom 0.003394 0.000650 -0.001950
Atom 0.000079 0.000694 0.007841
Atom 0.007511 -0.010031 -0.015905
4
# time step = 11.0 fs
Atom -0.001684 -0.003202 0.001634
Atom 0.004605 0.000727 -0.001852
Atom -0.000253 0.001005 0.006490
Atom 0.011001 -0.009815 -0.014196
4
# time step = 11.5 fs
Atom -0.001987 -0.003709 0.001749
Atom 0.005722 0.000835 -0.001674
Atom -0.002078 0.001539 0.004610
Atom 0.010845 -0.009498 -0.012506
4
# time step = 12.0 fs
Atom -0.002285 -0.004157 0.001895
Atom 0.007150 0.000994 -0.001363
Atom -0.008710 0.002098 0.002748
Atom 0.009857 -0.009406 -0.011603
4
# time step = 12.5 fs
Atom -0.002444 -0.004576 0.002013
Atom 0.008364 0.001114 -0.001093
Atom -0.013675 0.002639 0.000868
Atom 0.008424 -0.009072 -0.010238
4
# time step = 13.0 fs
Atom -0.002721 -0.004959 0.002001
Atom 0.009187 0.001118 -0.000992
Atom -0.013427 0.002900 -0.000470
Atom 0.011638 -0.008467 -0.008225
4
# time step = 13.5 fs
Atom -0.003686 -0.005245 0.001855
Atom 0.010517 0.001077 -0.000933
Atom -0.014666 0.002792 -0.000583
Atom 0.023891 -0.008251 -0.007074
4
# time step = 14.0 fs
Atom -0.003808 -0.005511 0.001818
Atom 0.011213 0.001054 -0.000807
Atom -0.016181 0.002980 -0.001800
Atom 0.027091 -0.007574 -0.005302
4
# time step = 14.5 fs
Atom -0.004292 -0.005711 0.001798
Atom 0.012315 0.001153 -0.000425
Atom -0.034585 0.003072 -0.001964
Atom 0.023759 -0.007297 -0.004494
4
# time step = 15.0 fs
Atom -0.005625 -0.005825 0.001710
Atom 0.013745 0.001301 0.000050
Atom -0.061660 0.002803 -0.000657
Atom 0.023110 -0.007550 -0.004813
4
# time step = 15.5 fs
Atom -0.005948 -0.005927 0.001624
Atom 0.013969 0.001335 0.000345
Atom -0.062655 0.002941 -0.001509
Atom 0.033957 -0.007722 -0.004773
4
# time step = 16.0 fs
Atom -0.007510 -0.005917 0.001372
Atom 0.016307 0.001443 0.000711
Atom -0.056640 0.002960 -0.001102
Atom 0.082223 -0.010308 -0.009451
4
# time step = 16.5 fs
Atom -0.008478 -0.005865 0.001117
Atom 0.018011 0.001573 0.001138
Atom -0.055298 0.002981 -0.000215
Atom 0.123796 -0.012838 -0.014057
4
# time step = 17.0 fs
Atom -0.009399 -0.005825 0.000764
Atom 0.018423 0.001618 0.001538
Atom -0.095528 0.002571 0.003192
Atom 0.118991 -0.012811 -0.014257
4
# time step = 17.5 fs
Atom -0.013924 -0.005839 0.000207
Atom 0.020141 0.001835 0.002097
Atom -0.184503 0.001795 0.011849
Atom 0.110052 -0.013835 -0.016464
4
# time step = 18.0 fs
Atom -0.014977 -0.005720 -0.000257
Atom 0.020239 0.001979 0.002587
Atom -0.230533 0.001821 0.017128
Atom 0.123392 -0.015559 -0.020013
4
# time step = 18.5 fs
Atom -0.015634 -0.005446 -0.000584
Atom 0.024688 0.002380 0.003321
Atom -0.220359 0.001859 0.018580
Atom 0.210083 -0.021384 -0.030293
4
# time step = 19.0 fs
Atom -0.016865 -0.005065 -0.000737
Atom 0.032130 0.002920 0.003995
Atom -0.212231 0.001732 0.020982
Atom 0.318462 -0.029308 -0.043789
4
# time step = 19.5 fs
Atom -0.018312 -0.004906 -0.001197
Atom 0.032419 0.003236 0.004625
Atom -0.256647 0.001499 0.026243
Atom 0.350230 -0.032751 -0.050012
4
# time step = 20.0 fs
Atom -0.029773 -0.004865 -0.001479
Atom 0.032836 0.003270 0.004835
Atom -0.367962 0.001394 0.034805
Atom 0.338424 -0.034012 -0.052582
4
# time step = 20.5 fs
Atom -0.039067 -0.004845 -0.001720
Atom 0.033280 0.003449 0.005169
Atom -0.456139 0.001334 0.042139
Atom 0.344721 -0.036669 -0.057437
4
# time step = 21.0 fs
Atom -0.038321 -0.004493 -0.002113
Atom 0.039798 0.003828 0.005798
Atom -0.463830 0.001332 0.045995
Atom 0.412214 -0.041670 -0.065724
4
# time step = 21.5 fs
Atom -0.036989 -0.003980 -0.002389
Atom 0.055564 0.004251 0.006193
Atom -0.442924 0.001307 0.049074
Atom 0.513680 -0.047036 -0.074589
4
# time step = 22.0 fs
Atom -0.038226 -0.003609 -0.002708
Atom 0.062283 0.004542 0.006627
Atom -0.455473 0.001294 0.052388
Atom 0.566730 -0.051127 -0.081400
4
# time step = 22.5 fs
Atom -0.050904 -0.003624 -0.002917
Atom 0.061615 0.004550 0.006967
Atom -0.526479 0.001351 0.056273
Atom 0.549608 -0.053515 -0.085460
4
# time step = 23.0 fs
Atom -0.065525 -0.003637 -0.003168
Atom 0.060587 0.004427 0.007233
Atom -0.601713 0.001445 0.059918
Atom 0.523837 -0.055483 -0.088800
4
# time step = 23.5 fs
Atom -0.068913 -0.003249 -0.003356
Atom 0.065081 0.004458 0.007421
Atom -0.619598 0.001522 0.062563
Atom 0.548762 -0.057808 -0.092745
4
# time step = 24.0 fs
Atom -0.067277 -0.002559 -0.003650
Atom 0.078544 0.004702 0.007638
Atom -0.591359 0.001558 0.064312
Atom 0.614104 -0.060250 -0.096792
4
# time step = 24.5 fs
Atom -0.066490 -0.001915 -0.003945
Atom 0.087223 0.004730 0.007806
Atom -0.577419 0.001592 0.065970
Atom 0.660513 -0.062277 -0.100141
4
# time step = 25.0 fs
Atom -0.073335 -0.001426 -0.004055
Atom 0.087714 0.004609 0.007776
Atom -0.609565 0.001655 0.067814
Atom 0.656618 -0.063688 -0.102526
4
# time step = 25.5 fs
Atom -0.085030 -0.001246 -0.004200
Atom 0.086931 0.004227 0.007643
Atom -0.659479 0.001721 0.069577
Atom 0.631490 -0.064766 -0.104355
4
# time step = 26.0 fs
Atom -0.090233 -0.000809 -0.004397
Atom 0.088699 0.004022 0.007566
Atom -0.681686 0.001763 0.070977
Atom 0.631235 -0.065872 -0.106214
4
# time step = 26.5 fs
Atom -0.089834 -0.000143 -0.004491
Atom 0.096067 0.004006 0.007558
Atom -0.669314 0.001792 0.072032
Atom 0.663076 -0.067041 -0.108155
4
# time step = 27.0 fs
Atom -0.089491 0.000623 -0.004560
Atom 0.103695 0.003997 0.007570
Atom -0.654307 0.001815 0.072949
Atom 0.695458 -0.068101 -0.109912
4
# time step = 27.5 fs
Atom -0.092875 0.001392 -0.004636
Atom 0.106485 0.003932 0.007507
Atom -0.663045 0.001837 0.073874
Atom 0.702328 -0.068950 -0.111330
4
# time step = 28.0 fs
Atom -0.100355 0.002188 -0.004586
Atom 0.107552 0.003811 0.007339
Atom -0.688300 0.001861 0.074771
Atom 0.691084 -0.069646 -0.112495
4
# time step = 28.5 fs
Atom -0.105871 0.002929 -0.004524
Atom 0.109084 0.003698 0.007180
Atom -0.705987 0.001880 0.075580
Atom 0.686108 -0.070281 -0.113558
4
# time step = 29.0 fs
Atom -0.107841 0.003568 -0.004449
Atom 0.113224 0.003474 0.006942
Atom -0.706167 0.001895 0.076293
Atom 0.697489 -0.070879 -0.114557
4
# time step = 29.5 fs
Atom -0.108533 0.004112 -0.004354
Atom 0.117976 0.003168 0.006633
Atom -0.699852 0.001906 0.076909
Atom 0.714341 -0.071457 -0.115518
4
# time step = 30.0 fs
Atom -0.111229 0.004625 -0.004226
Atom 0.121346 0.002839 0.006284
Atom -0.701205 0.001917 0.077466
Atom 0.722623 -0.071990 -0.116403
4
# time step = 30.5 fs
Atom -0.115301 0.005122 -0.004038
Atom 0.122675 0.002479 0.005881
Atom -0.711263 0.001926 0.077982
Atom 0.721414 -0.072476 -0.117209
4
# time step = 31.0 fs
Atom -0.118646 0.005594 -0.003817
Atom 0.123879 0.002123 0.005482
Atom -0.721109 0.001934 0.078460
Atom 0.719724 -0.072922 -0.117949
4
# time step = 31.5 fs
Atom -0.120285 0.006017 -0.003567
Atom 0.126216 0.001746 0.005060
Atom -0.724725 0.001942 0.078901
Atom 0.723649 -0.073335 -0.118634
4
# time step = 32.0 fs
Atom -0.121532 0.006379 -0.003296
Atom 0.129247 0.001336 0.004615
Atom -0.724417 0.001949 0.079312
Atom 0.730945 -0.073717 -0.119266
4
# time step = 32.5 fs
Atom -0.123628 0.006691 -0.002992
Atom 0.131623 0.000917 0.004173
Atom -0.725440 0.001955 0.079697
Atom 0.736417 -0.074069 -0.119849
4
# time step = 33.0 fs
Atom -0.126211 0.006947 -0.002648
Atom 0.133117 0.000517 0.003746
Atom -0.729455 0.001961 0.080057
Atom 0.738450 -0.074395 -0.120388
4
# time step = 33.5 fs
Atom -0.128144 0.007137 -0.002274
Atom 0.134429 0.000118 0.003321
Atom -0.734203 0.001966 0.080393
Atom 0.739347 -0.074699 -0.120892
4
# time step = 34.0 fs
Atom -0.129295 0.007250 -0.001899
Atom 0.136124 -0.000298 0.002876
Atom -0.737401 0.001971 0.080708
Atom 0.741431 -0.074984 -0.121363
4
# time step = 34.5 fs
Atom -0.130552 0.007285 -0.001520
Atom 0.137820 -0.000733 0.002409
Atom -0.739092 0.001975 0.081002
Atom 0.744690 -0.075252 -0.121806
4
# time step = 35.0 fs
Atom -0.132356 0.007251 -0.001115
Atom 0.139175 -0.001159 0.001943
Atom -0.740655 0.001979 0.081279
Atom 0.747776 -0.075504 -0.122222
4
# time step = 35.5 fs
Atom -0.133959 0.007142 -0.000688
Atom 0.140358 -0.001566 0.001496
Atom -0.742846 0.001982 0.081539
Atom 0.749958 -0.075740 -0.122613
4
# time step = 36.0 fs
Atom -0.134825 0.006946 -0.000256
Atom 0.141653 -0.001976 0.001038
Atom -0.745328 0.001985 0.081785
Atom 0.751597 -0.075963 -0.122981
4
# time step = 36.5 fs
Atom -0.135546 0.006678 0.000172
Atom 0.142893 -0.002398 0.000546
Atom -0.747511 0.001987 0.082017
Atom 0.753303 -0.076173 -0.123328
4
# time step = 37.0 fs
Atom -0.136892 0.006342 0.000601
Atom 0.143876 -0.002812 0.000047
Atom -0.749267 0.001989 0.082237
Atom 0.755224 -0.076372 -0.123656
4
# time step = 37.5 fs
Atom -0.138382 0.005929 0.001040
Atom 0.144766 -0.003199 -0.000439
Atom -0.750847 0.001991 0.082445
Atom 0.757125 -0.076560 -0.123967
4
# time step = 38.0 fs
Atom -0.139168 0.005452 0.001487
Atom 0.145834 -0.003568 -0.000933
Atom -0.752456 0.001993 0.082642
Atom 0.758815 -0.076739 -0.124262
4
# time step = 38.5 fs
Atom -0.139531 0.004936 0.001917
Atom 0.146880 -0.003929 -0.001451
Atom -0.754084 0.001994 0.082829
Atom 0.760318 -0.076908 -0.124541
4
# time step = 39.0 fs
Atom -0.140406 0.004390 0.002319
Atom 0.147603 -0.004271 -0.001975
Atom -0.755630 0.001996 0.083007
Atom 0.761747 -0.077068 -0.124807
4
# time step = 39.5 fs
Atom -0.141726 0.003794 0.002715
Atom 0.148181 -0.004582 -0.002481
Atom -0.757052 0.001998 0.083176
Atom 0.763157 -0.077221 -0.125059
4
# time step = 40.0 fs
Atom -0.142498 0.003135 0.003105
Atom 0.148991 -0.004873 -0.002983
Atom -0.758383 0.001999 0.083338
Atom 0.764523 -0.077367 -0.125300
4
# time step = 40.5 fs
Atom -0.142618 0.002449 0.003456
Atom 0.149858 -0.005154 -0.003508
Atom -0.759662 0.002001 0.083492
Atom 0.765816 -0.077505 -0.125529
4
# time step = 41.0 fs
Atom -0.143068 0.001764 0.003771
Atom 0.150423 -0.005416 -0.004041
Atom -0.760899 0.002002 0.083639
Atom 0.767034 -0.077638 -0.125748
4
# time step = 41.5 fs
Atom -0.144157 0.001043 0.004065
Atom 0.150843 -0.005648 -0.004552
Atom -0.762085 0.002004 0.083779
Atom 0.768195 -0.077764 -0.125958
4
# time step = 42.0 fs
Atom -0.144921 0.000299 0.004329
Atom 0.151512 -0.005851 -0.005055
Atom -0.763214 0.002006 0.083913
Atom 0.769310 -0.077885 -0.126158
4
# time step = 42.5 fs
Atom -0.144939 -0.000424 0.004561
Atom 0.152247 -0.006033 -0.005568
Atom -0.764292 0.002008 0.084042
Atom 0.770381 -0.078000 -0.126349
4
# time step = 43.0 fs
Atom -0.145148 -0.001128 0.004757
Atom 0.152673 -0.006192 -0.006075
Atom -0.765324 0.002010 0.084165
Atom 0.771407 -0.078111 -0.126533
4
# time step = 43.5 fs
Atom -0.146091 -0.001824 0.004912
Atom 0.152972 -0.006321 -0.006551
Atom -0.766316 0.002012 0.084284
Atom 0.772390 -0.078217 -0.126709
4
# time step = 44.0 fs
Atom -0.146856 -0.002534 0.005041
Atom 0.153535 -0.006427 -0.007004
Atom -0.767268 0.002014 0.084397
Atom 0.773332 -0.078318 -0.126877
4
# time step = 44.5 fs
Atom -0.146843 -0.003232 0.005138
Atom 0.154141 -0.006509 -0.007451
Atom -0.768184 0.002016 0.084506
Atom 0.774237 -0.078416 -0.127039
4
# time step = 45.0 fs
Atom -0.146874 -0.003865 0.005187
Atom 0.154447 -0.006559 -0.007872
Atom -0.769062 0.002018 0.084611
Atom 0.775108 -0.078509 -0.127195
4
# time step = 45.5 fs
Atom -0.147683 -0.004456 0.005198
Atom 0.154681 -0.006577 -0.008247
Atom -0.769908 0.002020 0.084712
Atom 0.775946 -0.078599 -0.127345
4
# time step = 46.0 fs
Atom -0.148397 -0.005021 0.005167
Atom 0.155200 -0.006562 -0.008585
Atom -0.770723 0.002022 0.084809
Atom 0.776752 -0.078686 -0.127489
4
# time step = 46.5 fs
Atom -0.148290 -0.005525 0.005086
Atom 0.155707 -0.006513 -0.008894
Atom -0.771507 0.002024 0.084903
Atom 0.777529 -0.078769 -0.127627
4
# time step = 47.0 fs
Atom -0.148167 -0.005962 0.004971
Atom 0.155913 -0.006430 -0.009158
Atom -0.772263 0.002027 0.084993
Atom 0.778277 -0.078849 -0.127761
4
# time step = 47.5 fs
Atom -0.148857 -0.006342 0.004818
Atom 0.156116 -0.006319 -0.009365
Atom -0.772993 0.002029 0.085080
Atom 0.778999 -0.078927 -0.127890
4
# time step = 48.0 fs
Atom -0.149549 -0.006668 0.004623
Atom 0.156599 -0.006182 -0.009519
Atom -0.773697 0.002032 0.085164
Atom 0.779696 -0.079001 -0.128014
4
# time step = 48.5 fs
Atom -0.149430 -0.006916 0.004394
Atom 0.156998 -0.006013 -0.009624
Atom -0.774377 0.002034 0.085246
Atom 0.780369 -0.079073 -0.128134
4
# time step = 49.0 fs
Atom -0.149273 -0.007073 0.004140
Atom 0.157095 -0.005818 -0.009673
Atom -0.775034 0.002037 0.085324
Atom 0.781020 -0.079143 -0.128250
4
# time step = 49.5 fs
Atom -0.149924 -0.007149 0.003858
Atom 0.157277 -0.005602 -0.009665
Atom -0.775669 0.002039 0.085400
Atom 0.781649 -0.079210 -0.128362
4
# time step = 50.0 fs
Atom -0.150561 -0.007143 0.003534
Atom 0.157735 -0.005359 -0.009603
Atom -0.776283 0.002042 0.085473
Atom 0.782257 -0.079275 -0.128470
4
# time step = 50.5 fs
Atom -0.150371 -0.007065 0.003181
Atom 0.158030 -0.005088 -0.009485
Atom -0.776878 0.002044 0.085545
Atom 0.782845 -0.079338 -0.128575
4
# time step = 51.0 fs
Atom -0.150117 -0.006916 0.002820
Atom 0.158053 -0.004802 -0.009317
Atom -0.777454 0.002047 0.085613
Atom 0.783415 -0.079398 -0.128677
4
# time step = 51.5 fs
Atom -0.150689 -0.006695 0.002437
Atom 0.158265 -0.004504 -0.009104
Atom -0.778011 0.002050 0.085680
Atom 0.783968 -0.079457 -0.128775
4
# time step = 52.0 fs
Atom -0.151265 -0.006392 0.002030
Atom 0.158705 -0.004192 -0.008837
Atom -0.778552 0.002052 0.085745
Atom 0.784503 -0.079514 -0.128870
4
# time step = 52.5 fs
Atom -0.151015 -0.006002 0.001616
Atom 0.158892 -0.003864 -0.008519
Atom -0.779077 0.002055 0.085808
Atom 0.785022 -0.079569 -0.128962
4
# time step = 53.0 fs
Atom -0.150769 -0.005561 0.001200
Atom 0.158874 -0.003533 -0.008170
Atom -0.779585 0.002057 0.085869
Atom 0.785526 -0.079623 -0.129052
4
# time step = 53.5 fs
Atom -0.151365 -0.005072 0.000784
Atom 0.159119 -0.003194 -0.007789
Atom -0.780079 0.002060 0.085928
Atom 0.786014 -0.079675 -0.129139
4
# time step = 54.0 fs
Atom -0.151915 -0.004515 0.000349
Atom 0.159491 -0.002840 -0.007363
Atom -0.780558 0.002062 0.085986
Atom 0.786489 -0.079726 -0.129223
4
# time step = 54.5 fs
Atom -0.151623 -0.003922 -0.000099
Atom 0.159557 -0.002475 -0.006902
Atom -0.781024 0.002065 0.086041
Atom 0.786950 -0.079775 -0.129305
4
# time step = 55.0 fs
Atom -0.151336 -0.003323 -0.000525
Atom 0.159527 -0.002109 -0.006433
Atom -0.781476 0.002067 0.086096
Atom 0.787398 -0.079822 -0.129384
4
# time step = 55.5 fs
Atom -0.151887 -0.002688 -0.000951
Atom 0.159817 -0.001739 -0.005948
Atom -0.781916 0.002070 0.086149
Atom 0.787833 -0.079869 -0.129461
4
# time step = 56.0 fs
Atom -0.152339 -0.001993 -0.001392
Atom 0.160114 -0.001360 -0.005424
Atom -0.782344 0.002072 0.086200
Atom 0.788257 -0.079914 -0.129537
4
# time step = 56.5 fs
Atom -0.151962 -0.001285 -0.001809
Atom 0.160101 -0.000981 -0.004888
Atom -0.782760 0.002074 0.086250
Atom 0.788669 -0.079958 -0.129610
4
# time step = 57.0 fs
Atom -0.151693 -0.000593 -0.002202
Atom 0.160123 -0.000611 -0.004362
Atom -0.783165 0.002076 0.086299
Atom 0.789069 -0.080000 -0.129681
4
# time step = 57.5 fs
Atom -0.152264 0.000102 -0.002585
Atom 0.160437 -0.000239 -0.003821
Atom -0.783559 0.002079 0.086347
Atom 0.789460 -0.080042 -0.129750
4
# time step = 58.0 fs
Atom -0.152683 0.000809 -0.002954
Atom 0.160630 0.000144 -0.003252
Atom -0.783943 0.002081 0.086393
Atom 0.789840 -0.080082 -0.129818
4
# time step = 58.5 fs
Atom -0.152293 0.001512 -0.003308
Atom 0.160542 0.000526 -0.002690
Atom -0.784317 0.002083 0.086438
Atom 0.790210 -0.080122 -0.129883
4
# time step = 59.0 fs
Atom -0.152059 0.002178 -0.003631
Atom 0.160610 0.000907 -0.002146
Atom -0.784681 0.002085 0.086482
Atom 0.790571 -0.080160 -0.129947
4
# time step = 59.5 fs
Atom -0.152617 0.002835 -0.003930
Atom 0.160910 0.001297 -0.001589
Atom -0.785037 0.002087 0.086525
Atom 0.790923 -0.080198 -0.130010
4
# time step = 60.0 fs
Atom -0.152929 0.003499 -0.004227
Atom 0.160995 0.001694 -0.001015
Atom -0.785383 0.002089 0.086567
Atom 0.791266 -0.080235 -0.130071
4
# time step = 60.5 fs
Atom -0.152461 0.004106 -0.004490
Atom 0.160894 0.002078 -0.000466
Atom -0.785721 0.002090 0.086608
Atom 0.791600 -0.080271 -0.130130
4
# time step = 61.0 fs
Atom -0.152240 0.004649 -0.004701
Atom 0.161051 0.002449 0.000067
Atom -0.786051 0.002092 0.086648
Atom 0.791926 -0.080306 -0.130188
4
# time step = 61.5 fs
Atom -0.152794 0.005153 -0.004882
Atom 0.161324 0.002823 0.000617
Atom -0.786373 0.002094 0.086687
Atom 0.792245 -0.080340 -0.130245
4
# time step = 62.0 fs
Atom -0.153048 0.005622 -0.005012
Atom 0.161305 0.003195 0.001171
Atom -0.786687 0.002095 0.086725
Atom 0.792556 -0.080373 -0.130300
4
# time step = 62.5 fs
Atom -0.152566 0.006037 -0.005088
Atom 0.161208 0.003549 0.001698
Atom -0.786994 0.002097 0.086762
Atom 0.792859 -0.080406 -0.130354
4
# time step = 63.0 fs
Atom -0.152420 0.006374 -0.005127
Atom 0.161419 0.003900 0.002209
Atom -0.787293 0.002098 0.086798
Atom 0.793156 -0.080438 -0.130407
4
# time step = 63.5 fs
Atom -0.153014 0.006648 -0.005122
Atom 0.161608 0.004254 0.002735
Atom -0.787586 0.002100 0.086834
Atom 0.793446 -0.080469 -0.130458
4
# time step = 64.0 fs
Atom -0.153186 0.006844 -0.005080
Atom 0.161490 0.004592 0.003248
Atom -0.787872 0.002101 0.086869
Atom 0.793729 -0.080499 -0.130509
4
# time step = 64.5 fs
Atom -0.152623 0.006953 -0.005006
Atom 0.161453 0.004905 0.003719
Atom -0.788152 0.002103 0.086903
Atom 0.794006 -0.080529 -0.130558
4
# time step = 65.0 fs
Atom -0.152490 0.006990 -0.004887
Atom 0.161728 0.005202 0.004185
Atom -0.788425 0.002104 0.086936
Atom 0.794276 -0.080558 -0.130606
4
# time step = 65.5 fs
Atom -0.153064 0.006959 -0.004727
Atom 0.161829 0.005487 0.004659
Atom -0.788693 0.002105 0.086968
Atom 0.794541 -0.080587 -0.130653
4
# time step = 66.0 fs
Atom -0.153157 0.006867 -0.004522
Atom 0.161653 0.005740 0.005104
Atom -0.788955 0.002106 0.087000
Atom 0.794800 -0.080615 -0.130700
4
# time step = 66.5 fs
Atom -0.152578 0.006692 -0.004272
Atom 0.161715 0.005959 0.005520
Atom -0.789211 0.002107 0.087031
Atom 0.795053 -0.080643 -0.130745
4
# time step = 67.0 fs
Atom -0.152539 0.006447 -0.003996
Atom 0.161993 0.006156 0.005933
Atom -0.789461 0.002109 0.087062
Atom 0.795301 -0.080669 -0.130789
4
# time step = 67.5 fs
Atom -0.153161 0.006128 -0.003680
Atom 0.161956 0.006326 0.006336
Atom -0.789707 0.002110 0.087092
Atom 0.795544 -0.080696 -0.130832
4
# time step = 68.0 fs
Atom -0.153178 0.005716 -0.003316
Atom 0.161751 0.006458 0.006696
Atom -0.789947 0.002111 0.087121
Atom 0.795782 -0.080722 -0.130875
4
# time step = 68.5 fs
Atom -0.152548 0.005282 -0.002945
Atom 0.161925 0.006558 0.007019
Atom -0.790183 0.002112 0.087150
Atom 0.796015 -0.080747 -0.130917
4
# time step = 69.0 fs
Atom -0.152536 0.004826 -0.002561
Atom 0.162156 0.006627 0.007332
Atom -0.790414 0.002112 0.087178
Atom 0.796244 -0.080772 -0.130958
4
# time step = 69.5 fs
Atom -0.153121 0.004324 -0.002141
Atom 0.162001 0.006659 0.007616
Atom -0.790640 0.002113 0.087205
Atom 0.796468 -0.080797 -0.130998
4
# time step = 70.0 fs
Atom -0.153043 0.003792 -0.001704
Atom 0.161873 0.006655 0.007853
Atom -0.790862 0.002114 0.087233
Atom 0.796689 -0.080821 -0.131037
4
# time step = 70.5 fs
Atom -0.152404 0.003235 -0.001252
Atom 0.162150 0.006613 0.008069
Atom -0.791081 0.002115 0.087259
Atom 0.796906 -0.080844 -0.131076
4
# time step = 71.0 fs
Atom -0.152486 0.002667 -0.000794
Atom 0.162279 0.006531 0.008265
Atom -0.791296 0.002116 0.087285
Atom 0.797119 -0.080868 -0.131115
4
# time step = 71.5 fs
Atom -0.153092 0.002068 -0.000299
Atom 0.162064 0.006416 0.008425
Atom -0.791507 0.002117 0.087311
Atom 0.797331 -0.080891 -0.131153
4
# time step = 72.0 fs
Atom -0.152971 0.001431 0.000229
Atom 0.162061 0.006268 0.008546
Atom -0.791716 0.002118 0.087336
Atom 0.797539 -0.080914 -0.131190
4
# time step = 72.5 fs
Atom -0.152354 0.000818 0.000719
Atom 0.162332 0.006082 0.008633
Atom -0.791922 0.002118 0.087361
Atom 0.797747 -0.080937 -0.131228
4
# time step = 73.0 fs
Atom -0.152463 0.000216 0.001193
Atom 0.162343 0.005863 0.008685
Atom -0.792127 0.002119 0.087386
Atom 0.797954 -0.080960 -0.131265
4
# time step = 73.5 fs
Atom -0.152983 -0.000411 0.001677
Atom 0.162180 0.005624 0.008698
Atom -0.792331 0.002120 0.087411
Atom 0.798162 -0.080983 -0.131303
4
# time step = 74.0 fs
Atom -0.152796 -0.001023 0.002157
Atom 0.162292 0.005364 0.008670
Atom -0.792534 0.002121 0.087435
Atom 0.798370 -0.081006 -0.131341
4
# time step = 74.5 fs
Atom -0.152266 -0.001605 0.002624
Atom 0.162491 0.005078 0.008603
Atom -0.792738 0.002121 0.087460
Atom 0.798581 -0.081029 -0.131379
4
# time step = 75.0 fs
Atom -0.152466 -0.002166 0.003067
Atom 0.162476 0.004783 0.008505
Atom -0.792943 0.002122 0.087484
Atom 0.798795 -0.081053 -0.131418
4
# time step = 75.5 fs
Atom -0.152959 -0.002721 0.003511
Atom 0.162456 0.004494 0.008380
Atom -0.793150 0.002123 0.087509
Atom 0.799012 -0.081078 -0.131458
4
# time step = 76.0 fs
Atom -0.152807 -0.003288 0.003916
Atom 0.162619 0.004210 0.008234
Atom -0.793360 0.002123 0.087534
Atom 0.799234 -0.081103 -0.131499
4
# time step = 76.5 fs
Atom -0.152427 -0.003808 0.004250
Atom 0.162777 0.003941 0.008079
Atom -0.793573 0.002124 0.087560
Atom 0.799460 -0.081128 -0.131541
4
# time step = 77.0 fs
Atom -0.152658 -0.004280 0.004541
Atom 0.162853 0.003697 0.007923
Atom -0.793790 0.002125 0.087585
Atom 0.799692 -0.081154 -0.131583
4
# time step = 77.5 fs
Atom -0.153053 -0.004704 0.004799
Atom 0.162971 0.003491 0.007777
Atom -0.794012 0.002126 0.087612
Atom 0.799928 -0.081181 -0.131627
4
# time step = 78.0 fs
Atom -0.152965 -0.005048 0.005024
Atom 0.163153 0.003316 0.007643
Atom -0.794239 0.002126 0.087639
Atom 0.800168 -0.081208 -0.131671
4
# time step = 78.5 fs
Atom -0.152795 -0.005349 0.005189
Atom 0.163329 0.003181 0.007537
Atom -0.794470 0.002127 0.087666
Atom 0.800413 -0.081236 -0.131716
4
# time step = 79.0 fs
Atom -0.153071 -0.005604 0.005297
Atom 0.163509 0.003085 0.007460
Atom -0.794706 0.002128 0.087695
Atom 0.800660 -0.081263 -0.131762
4
# time step = 79.5 fs
Atom -0.153423 -0.005819 0.005352
Atom 0.163715 0.003021 0.007405
Atom -0.794946 0.002129 0.087723
Atom 0.800909 -0.081291 -0.131808
